Title: kicad schematic
Date: Tue Oct 14 19:02:42  2025
Plotname: AC Analysis
Flags: complex
No. Variables: 16
No. Points: 401     
Variables:
	0	frequency	frequency	grid=3
	1	v(net-_v2-pad2_)	voltage
	2	v(in1)	voltage
	3	v(net-_i1-pad1_)	voltage
	4	v(vdd)	voltage
	5	v(net-_m1-pad2_)	voltage
	6	v(net-_m4-pad3_)	voltage
	7	v(net-_m3-pad2_)	voltage
	8	v(in2)	voltage
	9	v(out)	voltage
	10	v(net-_v3-pad1_)	voltage
	11	i(v3)	current
	12	i(v4)	current
	13	i(v6)	current
	14	i(v2)	current
	15	i(v1)	current
Values:
0		1.000000000000000e+01,3.340423126977013e-314
	0.000000000000000e+00,0.000000000000000e+00
	9.900000000000002e-01,0.000000000000000e+00
	-2.354490673883683e-12,-1.772147022573389e-12
	0.000000000000000e+00,0.000000000000000e+00
	-1.044391909304564e-01,6.469078187992118e-04
	1.972296015174899e-04,-7.477493766299418e-05
	1.473710834370870e-01,-1.674720451666190e-02
	-9.900000000000002e-01,-0.000000000000000e+00
	-8.489565838083798e-04,1.098017438748276e-03
	0.000000000000000e+00,0.000000000000000e+00
	-2.236308891381106e-15,-4.162737194825511e-13
	2.236308891381106e-15,4.162737194825511e-13
	9.495696188000662e-14,1.175131416967992e-13
	-7.605876917968102e-17,-4.105139262568157e-13
	-7.605876917968102e-17,-4.105139262568157e-13
1		1.047128548050900e+01,2.302585092994046e+00
	0.000000000000000e+00,0.000000000000000e+00
	9.900000000000002e-01,0.000000000000000e+00
	-2.577629448098754e-12,-1.823742661102422e-12
	0.000000000000000e+00,0.000000000000000e+00
	-1.044383088676968e-01,6.773105248034450e-04
	1.963548664711063e-04,-7.819098181222987e-05
	1.471855905833709e-01,-1.751363038580291e-02
	-9.900000000000002e-01,-0.000000000000000e+00
	-8.347542182674498e-04,1.147978056433409e-03
	0.000000000000000e+00,0.000000000000000e+00
	-2.448868690807935e-15,-4.358661521815698e-13
	2.448868690807935e-15,4.358661521815698e-13
	1.081733899581654e-13,1.211626202294266e-13
	-8.339996622159778e-17,-4.298608505407089e-13
	-8.339996622159778e-17,-4.298608505407089e-13
2		1.096478196143185e+01,2.348636794853927e+00
	0.000000000000000e+00,0.000000000000000e+00
	9.900000000000002e-01,0.000000000000000e+00
	-2.821496886567297e-12,-1.873143974472047e-12
	0.000000000000000e+00,0.000000000000000e+00
	-1.044373437738765e-01,7.091337224262250e-04
	1.953983885184799e-04,-8.175236235091819e-05
	1.469827622821195e-01,-1.831286455288594e-02
	-9.900000000000002e-01,-0.000000000000000e+00
	-8.192256269421204e-04,1.200034128583280e-03
	0.000000000000000e+00,0.000000000000000e+00
	-2.681300196282945e-15,-4.563781862916172e-13
	2.681300196282945e-15,4.563781862916172e-13
	1.226176268620138e-13,1.247103955793227e-13
	-9.145006179435258e-17,-4.501195670402050e-13
	-9.145006179435258e-17,-4.501195670402050e-13
3		1.148153621496883e+01,2.394688496713808e+00
	0.000000000000000e+00,0.000000000000000e+00
	9.900000000000002e-01,0.000000000000000e+00
	-3.087935354087754e-12,-1.919588445876239e-12
	0.000000000000000e+00,0.000000000000000e+00
	-1.044362880459627e-01,7.424425962999034e-04
	1.943528034225507e-04,-8.546369592256392e-05
	1.467610365000935e-01,-1.914598085891001e-02
	-9.900000000000002e-01,-0.000000000000000e+00
	-8.022515265850413e-04,1.254247462873450e-03
	0.000000000000000e+00,0.000000000000000e+00
	-2.935395333220082e-15,-4.778526248217495e-13
	2.935395333220082e-15,4.778526248217495e-13
	1.383988120901760e-13,1.281126781673900e-13
	-1.002775737723451e-16,-4.713330471422358e-13
	-1.002775737723451e-16,-4.713330471422358e-13
4		1.202264434617413e+01,2.440740198573689e+00
	0.000000000000000e+00,0.000000000000000e+00
	9.900000000000002e-01,0.000000000000000e+00
	-3.378934404880898e-12,-1.962186560252687e-12
	0.000000000000000e+00,0.000000000000000e+00
	-1.044351334265038e-01,7.773051591907130e-04
	1.932101377859544e-04,-8.932950771150168e-05
	1.465187219368373e-01,-2.001403837582879e-02
	-9.900000000000002e-01,-0.000000000000000e+00
	-7.837028078460246e-04,1.310677667472107e-03
	0.000000000000000e+00,0.000000000000000e+00
	-3.213094601313164e-15,-5.003342137658303e-13
	3.213094601313164e-15,5.003342137658303e-13
	1.556348069472571e-13,1.313182268317249e-13
	-1.099576546543351e-16,-4.935462873990755e-13
	-1.099576546543351e-16,-4.935462873990755e-13
5		1.258925411794168e+01,2.486791900433570e+00
	0.000000000000000e+00,0.000000000000000e+00
	9.900000000000002e-01,0.000000000000000e+00
	-3.696639200800530e-12,-1.999903955542423e-12
	0.000000000000000e+00,0.000000000000000e+00
	-1.044338709554660e-01,8.137923533444427e-04
	1.919617694596500e-04,-9.335418672799216e-05
	1.462539896101861e-01,-2.091807216267363e-02
	-9.900000000000002e-01,-0.000000000000000e+00
	-7.634399056306567e-04,1.369381379314710e-03
	0.000000000000000e+00,0.000000000000000e+00
	-3.516496807977926e-15,-5.238697239611893e-13
	3.516496807977926e-15,5.238697239611893e-13
	1.744526939368344e-13,1.342672957032960e-13
	-1.205727362168594e-16,-5.168064049680776e-13
	-1.205727362168594e-16,-5.168064049680776e-13
6		1.318256738556408e+01,2.532843602293450e+00
	0.000000000000000e+00,0.000000000000000e+00
	9.900000000000002e-01,0.000000000000000e+00
	-4.043358692753741e-12,-2.031541368212625e-12
	0.000000000000000e+00,0.000000000000000e+00
	-1.044324909201400e-01,8.519781528901517e-04
	1.905983876111040e-04,-9.754193429917924e-05
	1.459648643662523e-01,-2.185908259448594e-02
	-9.900000000000002e-01,-0.000000000000000e+00
	-7.413121664875706e-04,1.430411378611675e-03
	0.000000000000000e+00,0.000000000000000e+00
	-3.847868905851677e-15,-5.485080356779952e-13
	3.847868905851677e-15,5.485080356779952e-13
	1.949892622800064e-13,1.368904507065791e-13
	-1.322132371855275e-16,-5.411627375485266e-13
	-1.322132371855275e-16,-5.411627375485266e-13
7		1.380384264602886e+01,2.578895304153332e+00
	0.000000000000000e+00,0.000000000000000e+00
	9.900000000000002e-01,0.000000000000000e+00
	-4.421573366042207e-12,-2.055712158491419e-12
	0.000000000000000e+00,0.000000000000000e+00
	-1.044309828033913e-01,8.919396670371048e-04
	1.891099530071405e-04,-1.018967050540440e-04
	1.456492164305633e-01,-2.283802311392934e-02
	-9.900000000000002e-01,-0.000000000000000e+00
	-7.171572224631402e-04,1.493815577788177e-03
	0.000000000000000e+00,0.000000000000000e+00
	-4.209655803804031e-15,-5.743002259736473e-13
	4.209655803804031e-15,5.743002259736473e-13
	2.173914677833294e-13,1.391072429951703e-13
	-1.449783401412173e-16,-5.666669480273540e-13
	-1.449783401412173e-16,-5.666669480273540e-13
8		1.445439770745928e+01,2.624947006013213e+00
	0.000000000000000e+00,0.000000000000000e+00
	9.900000000000002e-01,0.000000000000000e+00
	-4.833942305675476e-12,-2.070817194378100e-12
	0.000000000000000e+00,0.000000000000000e+00
	-1.044293352306157e-01,9.337572437928834e-04
	1.874856592021215e-04,-1.064221396653986e-04
	1.453047531461842e-01,-2.385578625016358e-02
	-9.900000000000002e-01,-0.000000000000000e+00
	-6.908003831773254e-04,1.559635872649196e-03
	0.000000000000000e+00,0.000000000000000e+00
	-4.604489988007299e-15,-6.012996588500580e-13
	4.604489988007299e-15,6.012996588500580e-13
	2.418168526385612e-13,1.408247262543040e-13
	-1.589768444973445e-16,-5.933731340553931e-13
	-1.589768444973445e-16,-5.933731340553931e-13
9		1.513561248436209e+01,2.670998707873093e+00
	0.000000000000000e+00,0.000000000000000e+00
	9.900000000000002e-01,0.000000000000000e+00
	-5.283309286399363e-12,-2.075016871332034e-12
	0.000000000000000e+00,0.000000000000000e+00
	-1.044275359158729e-01,9.775145739341141e-04
	1.857138954820300e-04,-1.111214886000917e-04
	1.449290110782960e-01,-2.491318774707139e-02
	-9.900000000000002e-01,-0.000000000000000e+00
	-6.620540605428158e-04,1.627906843378505e-03
	0.000000000000000e+00,0.000000000000000e+00
	-5.035200751650664e-15,-6.295620782588933e-13
	5.035200751650664e-15,6.295620782588933e-13
	2.684339077030465e-13,1.419358046737709e-13
	-1.743281030648787e-16,-6.213379427862515e-13
	-1.743281030648787e-16,-6.213379427862515e-13
10		1.584893192461115e+01,2.717050409732975e+00
	0.000000000000000e+00,0.000000000000000e+00
	9.900000000000002e-01,0.000000000000000e+00
	-5.772707533821761e-12,-2.066200048105599e-12
	0.000000000000000e+00,0.000000000000000e+00
	-1.044255716077915e-01,1.023298794979172e-03
	1.837822125964784e-04,-1.159975261347695e-04
	1.445193487030793e-01,-2.601094864425539e-02
	-9.900000000000002e-01,-0.000000000000000e+00
	-6.307172435929553e-04,1.698654293097767e-03
	0.000000000000000e+00,0.000000000000000e+00
	-5.504822788550618e-15,-6.591457040118171e-13
	5.504822788550618e-15,6.591457040118171e-13
	2.974223563576075e-13,1.423173986051124e-13
	-1.911630504692905e-16,-6.506206910207365e-13
	-1.911630504692905e-16,-6.506206910207365e-13
11		1.659586907437562e+01,2.763102111592856e+00
	0.000000000000000e+00,0.000000000000000e+00
	9.900000000000002e-01,0.000000000000000e+00
	-6.305362737364133e-12,-2.041949690266154e-12
	0.000000000000000e+00,0.000000000000000e+00
	-1.044234280359803e-01,1.071200594949118e-03
	1.816772925162162e-04,-1.210524539245610e-04
	1.440729399420415e-01,-2.714967516059422e-02
	-9.900000000000002e-01,-0.000000000000000e+00
	-5.965750443146566e-04,1.771893612228027e-03
	0.000000000000000e+00,0.000000000000000e+00
	-6.016603857034610e-15,-6.901113306709623e-13
	6.016603857034610e-15,6.901113306709623e-13
	3.289733351582600e-13,1.418284155716681e-13
	-2.096253325041736e-16,-6.812834910111459e-13
	-2.096253325041736e-16,-6.812834910111459e-13
12		1.737800828749377e+01,2.809153813452737e+00
	0.000000000000000e+00,0.000000000000000e+00
	9.900000000000002e-01,0.000000000000000e+00
	-6.884693822822808e-12,-1.999505033671958e-12
	0.000000000000000e+00,0.000000000000000e+00
	-1.044210898588352e-01,1.121314315764307e-03
	1.793849236792369e-04,-1.262877934727641e-04
	1.435867688510982e-01,-2.832983624301346e-02
	-9.900000000000002e-01,-0.000000000000000e+00
	-5.593983391996938e-04,1.847627957924926e-03
	0.000000000000000e+00,0.000000000000000e+00
	-6.574011166071048e-15,-7.225224295209033e-13
	6.574011166071048e-15,7.225224295209033e-13
	3.632894421817839e-13,1.403075155250367e-13
	-2.298725464062670e-16,-7.133913821916209e-13
	-2.298725464062670e-16,-7.133913821916209e-13
13		1.819700858609985e+01,2.855205515312618e+00
	0.000000000000000e+00,0.000000000000000e+00
	9.900000000000002e-01,0.000000000000000e+00
	-7.514310912439333e-12,-1.935720112979875e-12
	0.000000000000000e+00,0.000000000000000e+00
	-1.044185406138027e-01,1.173738056215770e-03
	1.768899834433723e-04,-1.317042669490218e-04
	1.430576258265279e-01,-2.955173866417291e-02
	-9.900000000000002e-01,-0.000000000000000e+00
	-5.189435354115230e-04,1.925846239533401e-03
	0.000000000000000e+00,0.000000000000000e+00
	-7.180736075977044e-15,-7.564452537592394e-13
	7.180736075977044e-15,7.564452537592394e-13
	4.005846192437981e-13,1.375706611815340e-13
	-2.520776030227018e-16,-7.470124691131773e-13
	-2.520776030227018e-16,-7.470124691131773e-13
14		1.905460717963249e+01,2.901257217172498e+00
	0.000000000000000e+00,0.000000000000000e+00
	9.900000000000002e-01,0.000000000000000e+00
	-8.198009814369857e-12,-1.847018547970049e-12
	0.000000000000000e+00,0.000000000000000e+00
	-1.044157626713435e-01,1.228573774579580e-03
	1.741764297262714e-04,-1.373016659505032e-04
	1.424821057467856e-01,-3.081549958390297e-02
	-9.900000000000002e-01,-0.000000000000000e+00
	-4.749524949696999e-04,2.006520903478033e-03
	0.000000000000000e+00,0.000000000000000e+00
	-7.840696641813603e-15,-7.919489470907333e-13
	7.840696641813603e-15,7.919489470907333e-13
	4.410838290804789e-13,1.334084470934297e-13
	-2.764302229204833e-16,-7.822180658750362e-13
	-2.764302229204833e-16,-7.822180658750362e-13
15		1.995262314968882e+01,2.947308919032380e+00
	0.000000000000000e+00,0.000000000000000e+00
	9.900000000000002e-01,0.000000000000000e+00
	-8.939762292738410e-12,-1.729344546156017e-12
	0.000000000000000e+00,0.000000000000000e+00
	-1.044127371940326e-01,1.285927391116828e-03
	1.712273041020621e-04,-1.430787080053849e-04
	1.418566085290683e-01,-3.212101653255914e-02
	-9.900000000000002e-01,-0.000000000000000e+00
	-4.271526551010216e-04,2.089605514438063e-03
	0.000000000000000e+00,0.000000000000000e+00
	-8.558037459919178e-15,-8.291056559721634e-13
	8.558037459919178e-15,8.291056559721634e-13
	4.850224832206794e-13,1.275832049941461e-13
	-3.031385796676626e-16,-8.190828473574282e-13
	-3.031385796676626e-16,-8.190828473574282e-13
16		2.089296130854042e+01,2.993360620892261e+00
	0.000000000000000e+00,0.000000000000000e+00
	9.900000000000002e-01,0.000000000000000e+00
	-9.743701276263401e-12,-1.578110167147116e-12
	0.000000000000000e+00,0.000000000000000e+00
	-1.044094441024281e-01,1.345908890929732e-03
	1.680247489122123e-04,-1.490328808910999e-04
	1.411773426409362e-01,-3.346793483227635e-02
	-9.900000000000002e-01,-0.000000000000000e+00
	-3.752573877742538e-04,2.175032134230795e-03
	0.000000000000000e+00,0.000000000000000e+00
	-9.337126208692827e-15,-8.679906458343022e-13
	9.337126208692827e-15,8.679906458343022e-13
	5.326455707659840e-13,1.198258881011474e-13
	-3.324311048026531e-16,-8.576850075752451e-13
	-3.324311048026531e-16,-8.576850075752451e-13
17		2.187761623949556e+01,3.039412322752141e+00
	0.000000000000000e+00,0.000000000000000e+00
	9.900000000000002e-01,0.000000000000000e+00
	-1.061410007092470e-11,-1.388139005986390e-12
	0.000000000000000e+00,0.000000000000000e+00
	-1.044058620495272e-01,1.408632427934545e-03
	1.645500412360816e-04,-1.551602751925487e-04
	1.404403321679843e-01,-3.485561254674292e-02
	-9.900000000000002e-01,-0.000000000000000e+00
	-3.189666462498105e-04,2.262708505728684e-03
	0.000000000000000e+00,0.000000000000000e+00
	-1.018254620622877e-14,-9.086824217063459e-13
	1.018254620622877e-14,9.086824217063459e-13
	5.842064328230691e-13,1.098327436700445e-13
	-3.645584704100999e-16,-8.981064254867191e-13
	-3.645584704100999e-16,-8.981064254867191e-13
18		2.290867652767776e+01,3.085464024612023e+00
	0.000000000000000e+00,0.000000000000000e+00
	9.900000000000002e-01,0.000000000000000e+00
	-1.155534455460145e-11,-1.153606592593684e-12
	0.000000000000000e+00,0.000000000000000e+00
	-1.044019684058048e-01,1.474216431072612e-03
	1.607836468361919e-04,-1.614554059686423e-04
	1.396414280955207e-01,-3.628308314388325e-02
	-9.900000000000002e-01,-0.000000000000000e+00
	-2.579679510002919e-04,2.352515056545647e-03
	0.000000000000000e+00,0.000000000000000e+00
	-1.109908424314446e-14,-9.512628537893963e-13
	1.109908424314446e-14,9.512628537893963e-13
	6.399651221576658e-13,9.726179136748271e-14
	-3.997957667459261e-16,-9.404328386067813e-13
	-3.997957667459261e-16,-9.404328386067813e-13
19		2.398832919019494e+01,3.131515726471903e+00
	0.000000000000000e+00,0.000000000000000e+00
	9.900000000000002e-01,0.000000000000000e+00
	-1.257189725470013e-11,-8.679779755760754e-13
	0.000000000000000e+00,0.000000000000000e+00
	-1.043977392569666e-01,1.542783714319756e-03
	1.567052974273802e-04,-1.679110249389046e-04
	1.387763245114938e-01,-3.774901617080726e-02
	-9.900000000000002e-01,-0.000000000000000e+00
	-1.919377712829919e-04,2.444301746310500e-03
	0.000000000000000e+00,0.000000000000000e+00
	-1.209171289339901e-14,-9.958173086715518e-13
	1.209171289339901e-14,9.958173086715518e-13
	7.001862830932530e-13,8.172913515131577e-14
	-4.384448940079430e-16,-9.847540247909098e-13
	-4.384448940079430e-16,-9.847540247909098e-13
20		2.511886431509584e+01,3.177567428331785e+00
	0.000000000000000e+00,0.000000000000000e+00
	9.900000000000002e-01,0.000000000000000e+00
	-1.366825215063725e-11,-5.239431634476013e-13
	0.000000000000000e+00,0.000000000000000e+00
	-1.043931494166408e-01,1.614461592576959e-03
	1.522940947903013e-04,-1.745179252530735e-04
	1.378405804745538e-01,-3.925167637816158e-02
	-9.900000000000002e-01,-0.000000000000000e+00
	-1.205433615806988e-04,2.537884792227234e-03
	0.000000000000000e+00,0.000000000000000e+00
	-1.316556646470835e-14,-1.042434787049696e-12
	1.316556646470835e-14,1.042434787049696e-12
	7.651364831774119e-13,6.280514845811579e-14
	-4.808371891388209e-16,-1.031163992572150e-12
	-4.808371891388209e-16,-1.031163992572150e-12
21		2.630267991895386e+01,3.223619130191665e+00
	0.000000000000000e+00,0.000000000000000e+00
	9.900000000000002e-01,0.000000000000000e+00
	-1.484887901035338e-11,-1.133513360327560e-13
	0.000000000000000e+00,0.000000000000000e+00
	-1.043881724562490e-01,1.689382006134874e-03
	1.475286453398096e-04,-1.812647416695584e-04
	1.368296483090531e-01,-4.078888189242076e-02
	-9.900000000000002e-01,-0.000000000000000e+00
	-4.344511359515892e-05,2.633043320368428e-03
	0.000000000000000e+00,0.000000000000000e+00
	-1.432590973021088e-14,-1.091208069023103e-12
	1.432590973021088e-14,1.091208069023103e-12
	8.350809262121082e-13,4.001058667635983e-14
	-5.273363104822379e-16,-1.079761180451592e-12
	-5.273363104822379e-16,-1.079761180451592e-12
22		2.754228703338171e+01,3.269670832051546e+00
	0.000000000000000e+00,0.000000000000000e+00
	9.900000000000002e-01,0.000000000000000e+00
	-1.611815607412170e-11,3.728549868150737e-13
	0.000000000000000e+00,0.000000000000000e+00
	-1.043827807542136e-01,1.767681657099726e-03
	1.423872287162566e-04,-1.881377498415127e-04
	1.357389090808160e-01,-4.235796221934020e-02
	-9.900000000000002e-01,-0.000000000000000e+00
	3.970051608541599e-05,2.729516004733706e-03
	0.000000000000000e+00,0.000000000000000e+00
	-1.557809859246135e-14,-1.142233868251144e-12
	1.557809859246135e-14,1.142233868251144e-12
	9.102794764848172e-13,1.281269710953061e-14
	-5.783414051976869e-16,-1.130648665560972e-12
	-5.783414051976869e-16,-1.130648665560972e-12
23		2.884031503126611e+01,3.315722533911428e+00
	0.000000000000000e+00,0.000000000000000e+00
	9.900000000000002e-01,0.000000000000000e+00
	-1.748028995152938e-11,9.447043257312481e-13
	0.000000000000000e+00,0.000000000000000e+00
	-1.043769455664437e-01,1.849502161941056e-03
	1.368480037720262e-04,-1.951206693829857e-04
	1.345637159654406e-01,-4.395571706778186e-02
	-9.900000000000002e-01,-0.000000000000000e+00
	1.292374457603969e-04,2.826997772376177e-03
	0.000000000000000e+00,0.000000000000000e+00
	-1.692753187890224e-14,-1.195612996519535e-12
	1.692753187890224e-14,1.195612996519535e-12
	9.909819271548453e-13,-1.937858524968973e-14
	-6.342905865817882e-16,-1.183934382135276e-12
	-6.342905865817882e-16,-1.183934382135276e-12
24		3.019951720402021e+01,3.361774235771308e+00
	0.000000000000000e+00,0.000000000000000e+00
	9.900000000000002e-01,0.000000000000000e+00
	-1.893922171153058e-11,1.613257345542464e-12
	0.000000000000000e+00,0.000000000000000e+00
	-1.043706371196663e-01,1.934990225157264e-03
	1.308892549265687e-04,-2.021944764426434e-04
	1.332994461358127e-01,-4.557837720631532e-02
	-9.900000000000002e-01,-0.000000000000000e+00
	2.255057255622000e-04,2.925136670535599e-03
	0.000000000000000e+00,0.000000000000000e+00
	-1.837959356482632e-14,-1.251450540531934e-12
	1.837959356482632e-14,1.251450540531934e-12
	1.077422452496886e-12,-5.721424814331268e-14
	-6.956647508517653e-16,-1.239731350253221e-12
	-6.956647508517653e-16,-1.239731350253221e-12
25		3.162277660168385e+01,3.407825937631189e+00
	0.000000000000000e+00,0.000000000000000e+00
	9.900000000000002e-01,0.000000000000000e+00
	-2.049851833429588e-11,2.390662506684012e-12
	0.000000000000000e+00,0.000000000000000e+00
	-1.043638247285886e-01,2.024297839927713e-03
	1.244896812088729e-04,-2.093372326167839e-04
	1.319415616580767e-01,-4.722156879861462e-02
	-9.900000000000002e-01,-0.000000000000000e+00
	3.288365720258354e-04,3.023531010187583e-03
	0.000000000000000e+00,0.000000000000000e+00
	-1.993958487604097e-14,-1.309856053028868e-12
	1.993958487604097e-14,1.309856053028868e-12
	1.169813194875900e-12,-1.014094900135173e-13
	-7.629917655289543e-16,-1.298157915324467e-12
	-7.629917655289543e-16,-1.298157915324467e-12
26		3.311311214825917e+01,3.453877639491070e+00
	0.000000000000000e+00,0.000000000000000e+00
	9.900000000000002e-01,0.000000000000000e+00
	-2.216124897023950e-11,3.290203736631687e-12
	0.000000000000000e+00,0.000000000000000e+00
	-1.043564769370714e-01,2.117582522493355e-03
	1.176287293729295e-04,-2.165239381401008e-04
	1.304856796865318e-01,-4.888028289777856e-02
	-9.900000000000002e-01,-0.000000000000000e+00
	4.395466562756638e-04,3.121726918944858e-03
	0.000000000000000e+00,0.000000000000000e+00
	-2.161264594919324e-14,-1.370943760622434e-12
	2.161264594919324e-14,1.370943760622434e-12
	1.268336953697181e-12,-1.527465360238737e-13
	-8.368510643276055e-16,-1.359337998824194e-12
	-8.368510643276055e-16,-1.359337998824194e-12
27		3.467368504525323e+01,3.499929341350951e+00
	0.000000000000000e+00,0.000000000000000e+00
	9.900000000000002e-01,0.000000000000000e+00
	-2.392984582747738e-11,4.326337257669266e-12
	0.000000000000000e+00,0.000000000000000e+00
	-1.043485616824186e-01,2.215007587831207e-03
	1.102869712017267e-04,-2.237264183375868e-04
	1.289276519799352e-01,-5.054885200077602e-02
	-9.900000000000002e-01,-0.000000000000000e+00
	5.579316427982661e-04,3.219216453770323e-03
	0.000000000000000e+00,0.000000000000000e+00
	-2.340366703190334e-14,-1.434832791007908e-12
	2.340366703190334e-14,1.434832791007908e-12
	1.373138965812947e-12,-2.120768127825208e-13
	-9.178786864211147e-16,-1.423401360798610e-12
	-9.178786864211147e-16,-1.423401360798610e-12
28		3.630780547701021e+01,3.545981043210832e+00
	0.000000000000000e+00,0.000000000000000e+00
	9.900000000000002e-01,0.000000000000000e+00
	-2.580594999217533e-11,5.514714412069814e-12
	0.000000000000000e+00,0.000000000000000e+00
	-1.043400464805335e-01,2.316742474897326e-03
	1.024465234993868e-04,-2.309132532227515e-04
	1.272636534189673e-01,-5.222093575496363e-02
	-9.900000000000002e-01,-0.000000000000000e+00
	6.842590026178866e-04,3.315436439126361e-03
	0.000000000000000e+00,0.000000000000000e+00
	-2.531718959375126e-14,-1.501647422452604e-12
	2.531718959375126e-14,1.501647422452604e-12
	1.484317795453346e-12,-2.803222949555714e-13
	-1.006772801142785e-15,-1.490483874688735e-12
	-1.006772801142785e-15,-1.490483874688735e-12
29		3.801893963205620e+01,3.592032745070713e+00
	0.000000000000000e+00,0.000000000000000e+00
	9.900000000000002e-01,0.000000000000000e+00
	-2.779024307966102e-11,6.872187100956769e-12
	0.000000000000000e+00,0.000000000000000e+00
	-1.043308986280483e-01,2.422963130230444e-03
	9.409150728879705e-05,-2.380497607864853e-04
	1.254902787853126e-01,-5.388951804806253e-02
	-9.900000000000002e-01,-0.000000000000000e+00
	8.187601575565369e-04,3.409768207346270e-03
	0.000000000000000e+00,0.000000000000000e+00
	-2.735729819483486e-14,-1.571517358644349e-12
	2.735729819483486e-14,1.571517358644349e-12
	1.601915386857425e-12,-3.584758236707344e-13
	-1.104299762606661e-15,-1.560727815044849e-12
	-1.104299762606661e-15,-1.560727815044849e-12
30		3.981071705534981e+01,3.638084446930594e+00
	0.000000000000000e+00,0.000000000000000e+00
	9.900000000000002e-01,0.000000000000000e+00
	-2.988226631320851e-11,8.416792332889733e-12
	0.000000000000000e+00,0.000000000000000e+00
	-1.043210854156060e-01,2.533852458944612e-03
	8.520854040417754e-05,-2.450980448235887e-04
	1.236046465703377e-01,-5.554691777700743e-02
	-9.900000000000002e-01,-0.000000000000000e+00
	9.616220508787260e-04,3.501538423281617e-03
	0.000000000000000e+00,0.000000000000000e+00
	-2.952750451717402e-14,-1.644578032079469e-12
	2.952750451717402e-14,1.644578032079469e-12
	1.725906374131407e-12,-4.476001895089910e-13
	-1.211300742439406e-15,-1.634282158730096e-12
	-1.211300742439406e-15,-1.634282158730096e-12
31		4.168693834703362e+01,3.684136148790475e+00
	0.000000000000000e+00,0.000000000000000e+00
	9.900000000000002e-01,0.000000000000000e+00
	-3.208022941772201e-11,1.016771239959982e-11
	0.000000000000000e+00,0.000000000000000e+00
	-1.043105743443089e-01,2.649600851997255e-03
	7.578725504668631e-05,-2.520171179669553e-04
	1.216045080260135e-01,-5.718481555359200e-02
	-9.900000000000002e-01,-0.000000000000000e+00
	1.112978283186533e-03,3.590021172607231e-03
	0.000000000000000e+00,0.000000000000000e+00
	-3.183062559399540e-14,-1.720970939153680e-12
	3.183062559399540e-14,1.720970939153680e-12
	1.856186789617616e-12,-5.488257741593961e-13
	-1.328698992840591e-15,-1.711302900239078e-12
	-1.328698992840591e-15,-1.711302900239078e-12
32		4.365158322401669e+01,3.730187850650356e+00
	0.000000000000000e+00,0.000000000000000e+00
	9.900000000000002e-01,0.000000000000000e+00
	-3.438081257096902e-11,1.214520739655779e-11
	0.000000000000000e+00,0.000000000000000e+00
	-1.042993333350101e-01,2.770406798001127e-03
	6.582082903653285e-05,-2.587631098178930e-04
	1.194883590711161e-01,-5.879429843950222e-02
	-9.900000000000002e-01,-0.000000000000000e+00
	1.272899999486644e-03,3.674441480489352e-03
	0.000000000000000e+00,0.000000000000000e+00
	-3.426865895176351e-14,-1.800844009958940e-12
	3.426865895176351e-14,1.800844009958940e-12
	1.992562362658891e-12,-6.633465566721992e-13
	-1.457507796592558e-15,-1.791953381785947e-12
	-1.457507796592558e-15,-1.791953381785947e-12
33		4.570881896148760e+01,3.776239552510237e+00
	0.000000000000000e+00,0.000000000000000e+00
	9.900000000000002e-01,0.000000000000000e+00
	-3.677896553602531e-11,1.437051721918480e-11
	0.000000000000000e+00,0.000000000000000e+00
	-1.042873309177109e-01,2.896477586665428e-03
	5.530651658612742e-05,-2.652895685619324e-04
	1.172555520498877e-01,-6.036592448613992e-02
	-9.900000000000002e-01,-0.000000000000000e+00
	1.441386761702517e-03,3.753980402759895e-03
	0.000000000000000e+00,0.000000000000000e+00
	-3.684265807794310e-14,-1.884352015457861e-12
	3.684265807794310e-14,1.884352015457861e-12
	2.134736652760899e-12,-7.924143146994833e-13
	-1.598839165491857e-15,-1.876404638846476e-12
	-1.598839165491857e-15,-1.876404638846476e-12
34		4.786300923226394e+01,3.822291254370118e+00
	0.000000000000000e+00,0.000000000000000e+00
	9.900000000000002e-01,0.000000000000000e+00
	-3.926770895185324e-11,1.686573081764307e-11
	0.000000000000000e+00,0.000000000000000e+00
	-1.042745363859845e-01,3.028030109133561e-03
	4.424616161086825e-05,-2.715478621547506e-04
	1.149064037459749e-01,-6.188980836704867e-02
	-9.900000000000002e-01,-0.000000000000000e+00
	1.618357687593344e-03,3.827781793838115e-03
	0.000000000000000e+00,0.000000000000000e+00
	-3.955261230104455e-14,-1.971657014183956e-12
	3.955261230104455e-14,1.971657014183956e-12
	2.282299311629743e-12,-9.373308897068966e-13
	-1.753913354056452e-15,-1.964835761869979e-12
	-1.753913354056452e-15,-1.964835761869979e-12
35		5.011872336272734e+01,3.868342956229999e+00
	0.000000000000000e+00,0.000000000000000e+00
	9.900000000000002e-01,0.000000000000000e+00
	-4.183794351828558e-11,1.965362139733765e-11
	0.000000000000000e+00,0.000000000000000e+00
	-1.042609198992437e-01,3.165291757996849e-03
	3.264667411013398e-05,-2.774876820083115e-04
	1.124422955283934e-01,-6.335572872335923e-02
	-9.900000000000002e-01,-0.000000000000000e+00
	1.803643178399301e-03,3.894960803665143e-03
	0.000000000000000e+00,0.000000000000000e+00
	-4.239733576541647e-14,-2.062928839889866e-12
	4.239733576541647e-14,2.062928839889866e-12
	2.434714813475718e-12,-1.099438438647449e-12
	-1.924069261373733e-15,-2.057434274909798e-12
	-1.924069261373733e-15,-2.057434274909798e-12
36		5.248074602497739e+01,3.914394658089880e+00
	0.000000000000000e+00,0.000000000000000e+00
	9.900000000000002e-01,0.000000000000000e+00
	-4.447827340113475e-11,2.275744740306756e-11
	0.000000000000000e+00,0.000000000000000e+00
	-1.042464525139989e-01,3.308501426617109e-03
	2.052044824125748e-05,-2.830576481196840e-04
	1.098657611022908e-01,-6.475325699902579e-02
	-9.900000000000002e-01,-0.000000000000000e+00
	1.996977589344044e-03,3.954614090149046e-03
	0.000000000000000e+00,0.000000000000000e+00
	-4.537437064046997e-14,-2.158345630641182e-12
	4.537437064046997e-14,2.158345630641182e-12
	2.591312027841034e-12,-1.280107662686847e-12
	-2.110775800702560e-15,-2.154396531955362e-12
	-2.110775800702560e-15,-2.154396531955362e-12
37		5.495408738576259e+01,3.960446359949761e+00
	0.000000000000000e+00,0.000000000000000e+00
	9.900000000000002e-01,0.000000000000000e+00
	-4.717485052200191e-11,2.620072049331865e-11
	0.000000000000000e+00,0.000000000000000e+00
	-1.042311061242356e-01,3.457910603658425e-03
	7.885699654477647e-06,-2.882060098586351e-04
	1.071805571125738e-01,-6.607190654267420e-02
	-9.900000000000002e-01,-0.000000000000000e+00
	2.197993214909694e-03,4.005831655627332e-03
	0.000000000000000e+00,0.000000000000000e+00
	-4.847990995764087e-14,-2.258094398752933e-12
	4.847990995764087e-14,2.258094398752933e-12
	2.751275029245132e-12,-1.480724084550624e-12
	-2.315644324043664e-15,-2.255928131784587e-12
	-2.315644324043664e-15,-2.255928131784587e-12
38		5.754399373371584e+01,4.006498061809642e+00
	0.000000000000000e+00,0.000000000000000e+00
	9.900000000000002e-01,0.000000000000000e+00
	-4.991124640767500e-11,3.000694324163119e-11
	0.000000000000000e+00,0.000000000000000e+00
	-1.042148532908650e-01,3.613784554551609e-03
	-5.233300299128170e-06,-2.928814313484906e-04
	1.043917118584642e-01,-6.730129963546273e-02
	-9.900000000000002e-01,-0.000000000000000e+00
	2.406215960215921e-03,4.047710128691850e-03
	0.000000000000000e+00,0.000000000000000e+00
	-5.170874545550728e-14,-2.362371639733623e-12
	5.170874545550728e-14,2.362371639733623e-12
	2.913635538539486e-12,-1.702672536623780e-12
	-2.540442197463276e-15,-2.362244352192573e-12
	-2.540442197463276e-15,-2.362244352192573e-12
39		6.025595860743593e+01,4.052549763669523e+00
	0.000000000000000e+00,0.000000000000000e+00